# LAMMPS data file written by OVITO Basic 3.6.0
2916 atoms
1 atom types
0.0 33.224445343 xlo xhi
0.0 33.224445343 ylo yhi
0.0 33.224445343 zlo zhi

Masses

1 58.6934  # Ni

Atoms  # atomic

1 1 10.4675726134 1.4229210958 9.5763888972
2 1 10.4675726134 1.4229210958 20.6512033359
3 1 10.4675726134 1.4229210958 31.7260197682
4 1 10.4675726134 12.4977359332 9.5763888972
5 1 10.4675726134 12.4977359332 20.6512033359
6 1 10.4675726134 12.4977359332 31.7260197682
7 1 10.4675726134 23.5725504052 9.5763888972
8 1 10.4675726134 23.5725504052 20.6512033359
9 1 10.4675726134 23.5725504052 31.7260197682
10 1 21.5423880489 1.4229210958 9.5763888972
11 1 21.5423880489 1.4229210958 20.6512033359
12 1 21.5423880489 1.4229210958 31.7260197682
13 1 21.5423880489 12.4977359332 9.5763888972
14 1 21.5423880489 12.4977359332 20.6512033359
15 1 21.5423880489 12.4977359332 31.7260197682
16 1 21.5423880489 23.5725504052 9.5763888972
17 1 21.5423880489 23.5725504052 20.6512033359
18 1 21.5423880489 23.5725504052 31.7260197682
19 1 32.6172025209 1.4229210958 9.5763888972
20 1 32.6172025209 1.4229210958 20.6512033359
21 1 32.6172025209 1.4229210958 31.7260197682
22 1 32.6172025209 12.4977359332 9.5763888972
23 1 32.6172025209 12.4977359332 20.6512033359
24 1 32.6172025209 12.4977359332 31.7260197682
25 1 32.6172025209 23.5725504052 9.5763888972
26 1 32.6172025209 23.5725504052 20.6512033359
27 1 32.6172025209 23.5725504052 31.7260197682
28 1 0.4988075353 11.0549853921 3.0441144847
29 1 0.4988075353 11.0549853921 14.1189291561
30 1 0.4988075353 11.0549853921 25.1937446248
31 1 0.4988075353 22.1297998641 3.0441144847
32 1 0.4988075353 22.1297998641 14.1189291561
33 1 0.4988075353 22.1297998641 25.1937446248
34 1 0.4988075353 33.2046162963 3.0441144847
35 1 0.4988075353 33.2046162963 14.1189291561
36 1 0.4988075353 33.2046162963 25.1937446248
37 1 11.5736222731 11.0549853921 3.0441144847
38 1 11.5736222731 11.0549853921 14.1189291561
39 1 11.5736222731 11.0549853921 25.1937446248
40 1 11.5736222731 22.1297998641 3.0441144847
41 1 11.5736222731 22.1297998641 14.1189291561
42 1 11.5736222731 22.1297998641 25.1937446248
43 1 11.5736222731 33.2046162963 3.0441144847
44 1 11.5736222731 33.2046162963 14.1189291561
45 1 11.5736222731 33.2046162963 25.1937446248
46 1 22.6484387053 11.0549853921 3.0441144847
47 1 22.6484387053 11.0549853921 14.1189291561
48 1 22.6484387053 11.0549853921 25.1937446248
49 1 22.6484387053 22.1297998641 3.0441144847
50 1 22.6484387053 22.1297998641 14.1189291561
51 1 22.6484387053 22.1297998641 25.1937446248
52 1 22.6484387053 33.2046162963 3.0441144847
53 1 22.6484387053 33.2046162963 14.1189291561
54 1 22.6484387053 33.2046162963 25.1937446248
55 1 33.062889916 11.0929245856 6.7786140058
56 1 33.062889916 11.0929245856 17.8534289429
57 1 33.062889916 11.0929245856 28.9282434149
58 1 33.062889916 22.1677390243 6.7786140058
59 1 33.062889916 22.1677390243 17.8534289429
60 1 33.062889916 22.1677390243 28.9282434149
61 1 33.062889916 0.0181094823 6.7786140058
62 1 33.062889916 0.0181094823 17.8534289429
63 1 33.062889916 0.0181094823 28.9282434149
64 1 10.9132600085 11.0929245856 6.7786140058
65 1 10.9132600085 11.0929245856 17.8534289429
66 1 10.9132600085 11.0929245856 28.9282434149
67 1 10.9132600085 22.1677390243 6.7786140058
68 1 10.9132600085 22.1677390243 17.8534289429
69 1 10.9132600085 22.1677390243 28.9282434149
70 1 10.9132600085 0.0181094823 6.7786140058
71 1 10.9132600085 0.0181094823 17.8534289429
72 1 10.9132600085 0.0181094823 28.9282434149
73 1 21.9880754772 11.0929245856 6.7786140058
74 1 21.9880754772 11.0929245856 17.8534289429
75 1 21.9880754772 11.0929245856 28.9282434149
76 1 21.9880754772 22.1677390243 6.7786140058
77 1 21.9880754772 22.1677390243 17.8534289429
78 1 21.9880754772 22.1677390243 28.9282434149
79 1 21.9880754772 0.0181094823 6.7786140058
80 1 21.9880754772 0.0181094823 17.8534289429
81 1 21.9880754772 0.0181094823 28.9282434149
82 1 32.9565144452 3.9692692993 0.1850628185
83 1 32.9565144452 3.9692692993 11.2598783869
84 1 32.9565144452 3.9692692993 22.3346928589
85 1 32.9565144452 15.0440845023 0.1850628185
86 1 32.9565144452 15.0440845023 11.2598783869
87 1 32.9565144452 15.0440845023 22.3346928589
88 1 32.9565144452 26.1188999378 0.1850628185
89 1 32.9565144452 26.1188999378 11.2598783869
90 1 32.9565144452 26.1188999378 22.3346928589
91 1 10.8068845377 3.9692692993 0.1850628185
92 1 10.8068845377 3.9692692993 11.2598783869
93 1 10.8068845377 3.9692692993 22.3346928589
94 1 10.8068845377 15.0440845023 0.1850628185
95 1 10.8068845377 15.0440845023 11.2598783869
96 1 10.8068845377 15.0440845023 22.3346928589
97 1 10.8068845377 26.1188999378 0.1850628185
98 1 10.8068845377 26.1188999378 11.2598783869
99 1 10.8068845377 26.1188999378 22.3346928589
100 1 21.8817000064 3.9692692993 0.1850628185
101 1 21.8817000064 3.9692692993 11.2598783869
102 1 21.8817000064 3.9692692993 22.3346928589
103 1 21.8817000064 15.0440845023 0.1850628185
104 1 21.8817000064 15.0440845023 11.2598783869
105 1 21.8817000064 15.0440845023 22.3346928589
106 1 21.8817000064 26.1188999378 0.1850628185
107 1 21.8817000064 26.1188999378 11.2598783869
108 1 21.8817000064 26.1188999378 22.3346928589
109 1 0.6415579595 2.7312265932 3.6613453725
110 1 0.6415579595 2.7312265932 14.736160808
111 1 0.6415579595 2.7312265932 25.8109762435
112 1 0.6415579595 13.8060417961 3.6613453725
113 1 0.6415579595 13.8060417961 14.736160808
114 1 0.6415579595 13.8060417961 25.8109762435
115 1 0.6415579595 24.8808562349 3.6613453725
116 1 0.6415579595 24.8808562349 14.736160808
117 1 0.6415579595 24.8808562349 25.8109762435
118 1 11.7163734615 2.7312265932 3.6613453725
119 1 11.7163734615 2.7312265932 14.736160808
120 1 11.7163734615 2.7312265932 25.8109762435
121 1 11.7163734615 13.8060417961 3.6613453725
122 1 11.7163734615 13.8060417961 14.736160808
123 1 11.7163734615 13.8060417961 25.8109762435
124 1 11.7163734615 24.8808562349 3.6613453725
125 1 11.7163734615 24.8808562349 14.736160808
126 1 11.7163734615 24.8808562349 25.8109762435
127 1 22.791188897 2.7312265932 3.6613453725
128 1 22.791188897 2.7312265932 14.736160808
129 1 22.791188897 2.7312265932 25.8109762435
130 1 22.791188897 13.8060417961 3.6613453725
131 1 22.791188897 13.8060417961 14.736160808
132 1 22.791188897 13.8060417961 25.8109762435
133 1 22.791188897 24.8808562349 3.6613453725
134 1 22.791188897 24.8808562349 14.736160808
135 1 22.791188897 24.8808562349 25.8109762435
136 1 0.8530888995 2.9095908319 8.0540602277
137 1 0.8530888995 2.9095908319 19.1288751648
138 1 0.8530888995 2.9095908319 30.2036896368
139 1 0.8530888995 13.9844062674 8.0540602277
140 1 0.8530888995 13.9844062674 19.1288751648
141 1 0.8530888995 13.9844062674 30.2036896368
142 1 0.8530888995 25.0592207062 8.0540602277
143 1 0.8530888995 25.0592207062 19.1288751648
144 1 0.8530888995 25.0592207062 30.2036896368
145 1 11.9279035376 2.9095908319 8.0540602277
146 1 11.9279035376 2.9095908319 19.1288751648
147 1 11.9279035376 2.9095908319 30.2036896368
148 1 11.9279035376 13.9844062674 8.0540602277
149 1 11.9279035376 13.9844062674 19.1288751648
150 1 11.9279035376 13.9844062674 30.2036896368
151 1 11.9279035376 25.0592207062 8.0540602277
152 1 11.9279035376 25.0592207062 19.1288751648
153 1 11.9279035376 25.0592207062 30.2036896368
154 1 23.0027199699 2.9095908319 8.0540602277
155 1 23.0027199699 2.9095908319 19.1288751648
156 1 23.0027199699 2.9095908319 30.2036896368
157 1 23.0027199699 13.9844062674 8.0540602277
158 1 23.0027199699 13.9844062674 19.1288751648
159 1 23.0027199699 13.9844062674 30.2036896368
160 1 23.0027199699 25.0592207062 8.0540602277
161 1 23.0027199699 25.0592207062 19.1288751648
162 1 23.0027199699 25.0592207062 30.2036896368
163 1 11.6282645581 7.6008084238 10.2423257586
164 1 11.6282645581 7.6008084238 21.3171412273
165 1 11.6282645581 7.6008084238 32.3919556661
166 1 11.6282645581 18.6756228958 10.2423257586
167 1 11.6282645581 18.6756228958 21.3171412273
168 1 11.6282645581 18.6756228958 32.3919556661
169 1 11.6282645581 29.7504393281 10.2423257586
170 1 11.6282645581 29.7504393281 21.3171412273
171 1 11.6282645581 29.7504393281 32.3919556661
172 1 22.7030799936 7.6008084238 10.2423257586
173 1 22.7030799936 7.6008084238 21.3171412273
174 1 22.7030799936 7.6008084238 32.3919556661
175 1 22.7030799936 18.6756228958 10.2423257586
176 1 22.7030799936 18.6756228958 21.3171412273
177 1 22.7030799936 18.6756228958 32.3919556661
178 1 22.7030799936 29.7504393281 10.2423257586
179 1 22.7030799936 29.7504393281 21.3171412273
180 1 22.7030799936 29.7504393281 32.3919556661
181 1 0.5534494216 7.6008084238 10.2423257586
182 1 0.5534494216 7.6008084238 21.3171412273
183 1 0.5534494216 7.6008084238 32.3919556661
184 1 0.5534494216 18.6756228958 10.2423257586
185 1 0.5534494216 18.6756228958 21.3171412273
186 1 0.5534494216 18.6756228958 32.3919556661
187 1 0.5534494216 29.7504393281 10.2423257586
188 1 0.5534494216 29.7504393281 21.3171412273
189 1 0.5534494216 29.7504393281 32.3919556661
190 1 11.5555765153 8.478735819 3.498247268
191 1 11.5555765153 8.478735819 14.5730627035
192 1 11.5555765153 8.478735819 25.647878139
193 1 11.5555765153 19.5535512545 3.498247268
194 1 11.5555765153 19.5535512545 14.5730627035
195 1 11.5555765153 19.5535512545 25.647878139
196 1 11.5555765153 30.6283657265 3.498247268
197 1 11.5555765153 30.6283657265 14.5730627035
198 1 11.5555765153 30.6283657265 25.647878139
199 1 22.6303919508 8.478735819 3.498247268
200 1 22.6303919508 8.478735819 14.5730627035
201 1 22.6303919508 8.478735819 25.647878139
202 1 22.6303919508 19.5535512545 3.498247268
203 1 22.6303919508 19.5535512545 14.5730627035
204 1 22.6303919508 19.5535512545 25.647878139
205 1 22.6303919508 30.6283657265 3.498247268
206 1 22.6303919508 30.6283657265 14.5730627035
207 1 22.6303919508 30.6283657265 25.647878139
208 1 0.480761412 8.478735819 3.498247268
209 1 0.480761412 8.478735819 14.5730627035
210 1 0.480761412 8.478735819 25.647878139
211 1 0.480761412 19.5535512545 3.498247268
212 1 0.480761412 19.5535512545 14.5730627035
213 1 0.480761412 19.5535512545 25.647878139
214 1 0.480761412 30.6283657265 3.498247268
215 1 0.480761412 30.6283657265 14.5730627035
216 1 0.480761412 30.6283657265 25.647878139
217 1 11.4989558474 7.4475857541 7.7798437631
218 1 11.4989558474 7.4475857541 18.8546587003
219 1 11.4989558474 7.4475857541 29.929473139
220 1 11.4989558474 18.5224006913 7.7798437631
221 1 11.4989558474 18.5224006913 18.8546587003
222 1 11.4989558474 18.5224006913 29.929473139
223 1 11.4989558474 29.5972151633 7.7798437631
224 1 11.4989558474 29.5972151633 18.8546587003
225 1 11.4989558474 29.5972151633 29.929473139
226 1 22.5737703194 7.4475857541 7.7798437631
227 1 22.5737703194 7.4475857541 18.8546587003
228 1 22.5737703194 7.4475857541 29.929473139
229 1 22.5737703194 18.5224006913 7.7798437631
230 1 22.5737703194 18.5224006913 18.8546587003
231 1 22.5737703194 18.5224006913 29.929473139
232 1 22.5737703194 29.5972151633 7.7798437631
233 1 22.5737703194 29.5972151633 18.8546587003
234 1 22.5737703194 29.5972151633 29.929473139
235 1 0.4241407442 7.4475857541 7.7798437631
236 1 0.4241407442 7.4475857541 18.8546587003
237 1 0.4241407442 7.4475857541 29.929473139
238 1 0.4241407442 18.5224006913 7.7798437631
239 1 0.4241407442 18.5224006913 18.8546587003
240 1 0.4241407442 18.5224006913 29.929473139
241 1 0.4241407442 29.5972151633 7.7798437631
242 1 0.4241407442 29.5972151633 18.8546587003
243 1 0.4241407442 29.5972151633 29.929473139
244 1 0.5430630945 1.8866333837 1.600016061
245 1 0.5430630945 1.8866333837 12.6748310314
246 1 0.5430630945 1.8866333837 23.7496454702
247 1 0.5430630945 12.9614483208 1.600016061
248 1 0.5430630945 12.9614483208 12.6748310314
249 1 0.5430630945 12.9614483208 23.7496454702
250 1 0.5430630945 24.0362627928 1.600016061
251 1 0.5430630945 24.0362627928 12.6748310314
252 1 0.5430630945 24.0362627928 23.7496454702
253 1 11.6178777327 1.8866333837 1.600016061
254 1 11.6178777327 1.8866333837 12.6748310314
255 1 11.6178777327 1.8866333837 23.7496454702
256 1 11.6178777327 12.9614483208 1.600016061
257 1 11.6178777327 12.9614483208 12.6748310314
258 1 11.6178777327 12.9614483208 23.7496454702
259 1 11.6178777327 24.0362627928 1.600016061
260 1 11.6178777327 24.0362627928 12.6748310314
261 1 11.6178777327 24.0362627928 23.7496454702
262 1 22.6926931682 1.8866333837 1.600016061
263 1 22.6926931682 1.8866333837 12.6748310314
264 1 22.6926931682 1.8866333837 23.7496454702
265 1 22.6926931682 12.9614483208 1.600016061
266 1 22.6926931682 12.9614483208 12.6748310314
267 1 22.6926931682 12.9614483208 23.7496454702
268 1 22.6926931682 24.0362627928 1.600016061
269 1 22.6926931682 24.0362627928 12.6748310314
270 1 22.6926931682 24.0362627928 23.7496454702
271 1 3.4216252515 0.0138263862 3.9951153263
272 1 3.4216252515 0.0138263862 15.069930795
273 1 3.4216252515 0.0138263862 26.1447452338
274 1 3.4216252515 11.0886411239 3.9951153263
275 1 3.4216252515 11.0886411239 15.069930795
276 1 3.4216252515 11.0886411239 26.1447452338
277 1 3.4216252515 22.1634575562 3.9951153263
278 1 3.4216252515 22.1634575562 15.069930795
279 1 3.4216252515 22.1634575562 26.1447452338
280 1 14.4964407202 0.0138263862 3.9951153263
281 1 14.4964407202 0.0138263862 15.069930795
282 1 14.4964407202 0.0138263862 26.1447452338
283 1 14.4964407202 11.0886411239 3.9951153263
284 1 14.4964407202 11.0886411239 15.069930795
285 1 14.4964407202 11.0886411239 26.1447452338
286 1 14.4964407202 22.1634575562 3.9951153263
287 1 14.4964407202 22.1634575562 15.069930795
288 1 14.4964407202 22.1634575562 26.1447452338
289 1 25.571255159 0.0138263862 3.9951153263
290 1 25.571255159 0.0138263862 15.069930795
291 1 25.571255159 0.0138263862 26.1447452338
292 1 25.571255159 11.0886411239 3.9951153263
293 1 25.571255159 11.0886411239 15.069930795
294 1 25.571255159 11.0886411239 26.1447452338
295 1 25.571255159 22.1634575562 3.9951153263
296 1 25.571255159 22.1634575562 15.069930795
297 1 25.571255159 22.1634575562 26.1447452338
298 1 4.144351129 10.0764839129 8.2852312337
299 1 4.144351129 10.0764839129 19.3600471676
300 1 4.144351129 10.0764839129 30.4348616064
301 1 4.144351129 21.1512983849 8.2852312337
302 1 4.144351129 21.1512983849 19.3600471676
303 1 4.144351129 21.1512983849 30.4348616064
304 1 4.144351129 32.2261148172 8.2852312337
305 1 4.144351129 32.2261148172 19.3600471676
306 1 4.144351129 32.2261148172 30.4348616064
307 1 15.2191665645 10.0764839129 8.2852312337
308 1 15.2191665645 10.0764839129 19.3600471676
309 1 15.2191665645 10.0764839129 30.4348616064
310 1 15.2191665645 21.1512983849 8.2852312337
311 1 15.2191665645 21.1512983849 19.3600471676
312 1 15.2191665645 21.1512983849 30.4348616064
313 1 15.2191665645 32.2261148172 8.2852312337
314 1 15.2191665645 32.2261148172 19.3600471676
315 1 15.2191665645 32.2261148172 30.4348616064
316 1 26.2939810365 10.0764839129 8.2852312337
317 1 26.2939810365 10.0764839129 19.3600471676
318 1 26.2939810365 10.0764839129 30.4348616064
319 1 26.2939810365 21.1512983849 8.2852312337
320 1 26.2939810365 21.1512983849 19.3600471676
321 1 26.2939810365 21.1512983849 30.4348616064
322 1 26.2939810365 32.2261148172 8.2852312337
323 1 26.2939810365 32.2261148172 19.3600471676
324 1 26.2939810365 32.2261148172 30.4348616064
325 1 3.6535901224 4.7802330242 11.0169857966
326 1 3.6535901224 4.7802330242 22.0918012653
327 1 3.6535901224 4.7802330242 33.166615704
328 1 3.6535901224 15.8550479614 11.0169857966
329 1 3.6535901224 15.8550479614 22.0918012653
330 1 3.6535901224 15.8550479614 33.166615704
331 1 3.6535901224 26.9298633969 11.0169857966
332 1 3.6535901224 26.9298633969 22.0918012653
333 1 3.6535901224 26.9298633969 33.166615704
334 1 14.728404827 4.7802330242 11.0169857966
335 1 14.728404827 4.7802330242 22.0918012653
336 1 14.728404827 4.7802330242 33.166615704
337 1 14.728404827 15.8550479614 11.0169857966
338 1 14.728404827 15.8550479614 22.0918012653
339 1 14.728404827 15.8550479614 33.166615704
340 1 14.728404827 26.9298633969 11.0169857966
341 1 14.728404827 26.9298633969 22.0918012653
342 1 14.728404827 26.9298633969 33.166615704
343 1 25.8032212592 4.7802330242 11.0169857966
344 1 25.8032212592 4.7802330242 22.0918012653
345 1 25.8032212592 4.7802330242 33.166615704
346 1 25.8032212592 15.8550479614 11.0169857966
347 1 25.8032212592 15.8550479614 22.0918012653
348 1 25.8032212592 15.8550479614 33.166615704
349 1 25.8032212592 26.9298633969 11.0169857966
350 1 25.8032212592 26.9298633969 22.0918012653
351 1 25.8032212592 26.9298633969 33.166615704
352 1 3.430916966 3.0409063323 4.3480549213
353 1 3.430916966 3.0409063323 15.4228703568
354 1 3.430916966 3.0409063323 26.4976858255
355 1 3.430916966 14.1157210369 4.3480549213
356 1 3.430916966 14.1157210369 15.4228703568
357 1 3.430916966 14.1157210369 26.4976858255
358 1 3.430916966 25.1905364724 4.3480549213
359 1 3.430916966 25.1905364724 15.4228703568
360 1 3.430916966 25.1905364724 26.4976858255
361 1 14.5057324347 3.0409063323 4.3480549213
362 1 14.5057324347 3.0409063323 15.4228703568
363 1 14.5057324347 3.0409063323 26.4976858255
364 1 14.5057324347 14.1157210369 4.3480549213
365 1 14.5057324347 14.1157210369 15.4228703568
366 1 14.5057324347 14.1157210369 26.4976858255
367 1 14.5057324347 25.1905364724 4.3480549213
368 1 14.5057324347 25.1905364724 15.4228703568
369 1 14.5057324347 25.1905364724 26.4976858255
370 1 25.5805468735 3.0409063323 4.3480549213
371 1 25.5805468735 3.0409063323 15.4228703568
372 1 25.5805468735 3.0409063323 26.4976858255
373 1 25.5805468735 14.1157210369 4.3480549213
374 1 25.5805468735 14.1157210369 15.4228703568
375 1 25.5805468735 14.1157210369 26.4976858255
376 1 25.5805468735 25.1905364724 4.3480549213
377 1 25.5805468735 25.1905364724 15.4228703568
378 1 25.5805468735 25.1905364724 26.4976858255
379 1 3.6199049537 2.4637833305 7.8987547175
380 1 3.6199049537 2.4637833305 18.9735696546
381 1 3.6199049537 2.4637833305 30.0483841266
382 1 3.6199049537 13.5385980351 7.8987547175
383 1 3.6199049537 13.5385980351 18.9735696546
384 1 3.6199049537 13.5385980351 30.0483841266
385 1 3.6199049537 24.6134144673 7.8987547175
386 1 3.6199049537 24.6134144673 18.9735696546
387 1 3.6199049537 24.6134144673 30.0483841266
388 1 14.6947203892 2.4637833305 7.8987547175
389 1 14.6947203892 2.4637833305 18.9735696546
390 1 14.6947203892 2.4637833305 30.0483841266
391 1 14.6947203892 13.5385980351 7.8987547175
392 1 14.6947203892 13.5385980351 18.9735696546
393 1 14.6947203892 13.5385980351 30.0483841266
394 1 14.6947203892 24.6134144673 7.8987547175
395 1 14.6947203892 24.6134144673 18.9735696546
396 1 14.6947203892 24.6134144673 30.0483841266
397 1 25.7695358247 2.4637833305 7.8987547175
398 1 25.7695358247 2.4637833305 18.9735696546
399 1 25.7695358247 2.4637833305 30.0483841266
400 1 25.7695358247 13.5385980351 7.8987547175
401 1 25.7695358247 13.5385980351 18.9735696546
402 1 25.7695358247 13.5385980351 30.0483841266
403 1 25.7695358247 24.6134144673 7.8987547175
404 1 25.7695358247 24.6134144673 18.9735696546
405 1 25.7695358247 24.6134144673 30.0483841266
406 1 4.7057537519 7.9018385773 9.4153830024
407 1 4.7057537519 7.9018385773 20.490198438
408 1 4.7057537519 7.9018385773 31.5650129099
409 1 4.7057537519 18.9766530493 9.4153830024
410 1 4.7057537519 18.9766530493 20.490198438
411 1 4.7057537519 18.9766530493 31.5650129099
412 1 4.7057537519 30.0514694815 9.4153830024
413 1 4.7057537519 30.0514694815 20.490198438
414 1 4.7057537519 30.0514694815 31.5650129099
415 1 15.780568689 7.9018385773 9.4153830024
416 1 15.780568689 7.9018385773 20.490198438
417 1 15.780568689 7.9018385773 31.5650129099
418 1 15.780568689 18.9766530493 9.4153830024
419 1 15.780568689 18.9766530493 20.490198438
420 1 15.780568689 18.9766530493 31.5650129099
421 1 15.780568689 30.0514694815 9.4153830024
422 1 15.780568689 30.0514694815 20.490198438
423 1 15.780568689 30.0514694815 31.5650129099
424 1 26.855383161 7.9018385773 9.4153830024
425 1 26.855383161 7.9018385773 20.490198438
426 1 26.855383161 7.9018385773 31.5650129099
427 1 26.855383161 18.9766530493 9.4153830024
428 1 26.855383161 18.9766530493 20.490198438
429 1 26.855383161 18.9766530493 31.5650129099
430 1 26.855383161 30.0514694815 9.4153830024
431 1 26.855383161 30.0514694815 20.490198438
432 1 26.855383161 30.0514694815 31.5650129099
433 1 3.457352162 7.2936254021 4.1501250392
434 1 3.457352162 7.2936254021 15.2249402089
435 1 3.457352162 7.2936254021 26.2997556777
436 1 3.457352162 18.3684398409 4.1501250392
437 1 3.457352162 18.3684398409 15.2249402089
438 1 3.457352162 18.3684398409 26.2997556777
439 1 3.457352162 29.4432562731 4.1501250392
440 1 3.457352162 29.4432562731 15.2249402089
441 1 3.457352162 29.4432562731 26.2997556777
442 1 14.5321668666 7.2936254021 4.1501250392
443 1 14.5321668666 7.2936254021 15.2249402089
444 1 14.5321668666 7.2936254021 26.2997556777
445 1 14.5321668666 18.3684398409 4.1501250392
446 1 14.5321668666 18.3684398409 15.2249402089
447 1 14.5321668666 18.3684398409 26.2997556777
448 1 14.5321668666 29.4432562731 4.1501250392
449 1 14.5321668666 29.4432562731 15.2249402089
450 1 14.5321668666 29.4432562731 26.2997556777
451 1 25.6069823353 7.2936254021 4.1501250392
452 1 25.6069823353 7.2936254021 15.2249402089
453 1 25.6069823353 7.2936254021 26.2997556777
454 1 25.6069823353 18.3684398409 4.1501250392
455 1 25.6069823353 18.3684398409 15.2249402089
456 1 25.6069823353 18.3684398409 26.2997556777
457 1 25.6069823353 29.4432562731 4.1501250392
458 1 25.6069823353 29.4432562731 15.2249402089
459 1 25.6069823353 29.4432562731 26.2997556777
460 1 1.9791543272 7.4627867685 5.9699091112
461 1 1.9791543272 7.4627867685 17.0447250451
462 1 1.9791543272 7.4627867685 28.1195394838
463 1 1.9791543272 18.5376017056 5.9699091112
464 1 1.9791543272 18.5376017056 17.0447250451
465 1 1.9791543272 18.5376017056 28.1195394838
466 1 1.9791543272 29.6124161776 5.9699091112
467 1 1.9791543272 29.6124161776 17.0447250451
468 1 1.9791543272 29.6124161776 28.1195394838
469 1 13.0539693973 7.4627867685 5.9699091112
470 1 13.0539693973 7.4627867685 17.0447250451
471 1 13.0539693973 7.4627867685 28.1195394838
472 1 13.0539693973 18.5376017056 5.9699091112
473 1 13.0539693973 18.5376017056 17.0447250451
474 1 13.0539693973 18.5376017056 28.1195394838
475 1 13.0539693973 29.6124161776 5.9699091112
476 1 13.0539693973 29.6124161776 17.0447250451
477 1 13.0539693973 29.6124161776 28.1195394838
478 1 24.1287838693 7.4627867685 5.9699091112
479 1 24.1287838693 7.4627867685 17.0447250451
480 1 24.1287838693 7.4627867685 28.1195394838
481 1 24.1287838693 18.5376017056 5.9699091112
482 1 24.1287838693 18.5376017056 17.0447250451
483 1 24.1287838693 18.5376017056 28.1195394838
484 1 24.1287838693 29.6124161776 5.9699091112
485 1 24.1287838693 29.6124161776 17.0447250451
486 1 24.1287838693 29.6124161776 28.1195394838
487 1 7.3853285924 0.3949898152 1.1843252236
488 1 7.3853285924 0.3949898152 12.2591406591
489 1 7.3853285924 0.3949898152 23.3339561278
490 1 7.3853285924 11.4698053836 1.1843252236
491 1 7.3853285924 11.4698053836 12.2591406591
492 1 7.3853285924 11.4698053836 23.3339561278
493 1 7.3853285924 22.5446198556 1.1843252236
494 1 7.3853285924 22.5446198556 12.2591406591
495 1 7.3853285924 22.5446198556 23.3339561278
496 1 18.4601430311 0.3949898152 1.1843252236
497 1 18.4601430311 0.3949898152 12.2591406591
498 1 18.4601430311 0.3949898152 23.3339561278
499 1 18.4601430311 11.4698053836 1.1843252236
500 1 18.4601430311 11.4698053836 12.2591406591
501 1 18.4601430311 11.4698053836 23.3339561278
502 1 18.4601430311 22.5446198556 1.1843252236
503 1 18.4601430311 22.5446198556 12.2591406591
504 1 18.4601430311 22.5446198556 23.3339561278
505 1 29.5349594634 0.3949898152 1.1843252236
506 1 29.5349594634 0.3949898152 12.2591406591
507 1 29.5349594634 0.3949898152 23.3339561278
508 1 29.5349594634 11.4698053836 1.1843252236
509 1 29.5349594634 11.4698053836 12.2591406591
510 1 29.5349594634 11.4698053836 23.3339561278
511 1 29.5349594634 22.5446198556 1.1843252236
512 1 29.5349594634 22.5446198556 12.2591406591
513 1 29.5349594634 22.5446198556 23.3339561278
514 1 6.6199780772 0.0729481238 3.4990688421
515 1 6.6199780772 0.0729481238 14.5738835466
516 1 6.6199780772 0.0729481238 25.6486999789
517 1 6.6199780772 11.147762928 3.4990688421
518 1 6.6199780772 11.147762928 14.5738835466
519 1 6.6199780772 11.147762928 25.6486999789
520 1 6.6199780772 22.2225783635 3.4990688421
521 1 6.6199780772 22.2225783635 14.5738835466
522 1 6.6199780772 22.2225783635 25.6486999789
523 1 17.6947925492 0.0729481238 3.4990688421
524 1 17.6947925492 0.0729481238 14.5738835466
525 1 17.6947925492 0.0729481238 25.6486999789
526 1 17.6947925492 11.147762928 3.4990688421
527 1 17.6947925492 11.147762928 14.5738835466
528 1 17.6947925492 11.147762928 25.6486999789
529 1 17.6947925492 22.2225783635 3.4990688421
530 1 17.6947925492 22.2225783635 14.5738835466
531 1 17.6947925492 22.2225783635 25.6486999789
532 1 28.7696089814 0.0729481238 3.4990688421
533 1 28.7696089814 0.0729481238 14.5738835466
534 1 28.7696089814 0.0729481238 25.6486999789
535 1 28.7696089814 11.147762928 3.4990688421
536 1 28.7696089814 11.147762928 14.5738835466
537 1 28.7696089814 11.147762928 25.6486999789
538 1 28.7696089814 22.2225783635 3.4990688421
539 1 28.7696089814 22.2225783635 14.5738835466
540 1 28.7696089814 22.2225783635 25.6486999789
541 1 7.9611975375 1.0037271725 7.4469629287
542 1 7.9611975375 1.0037271725 18.5217788626
543 1 7.9611975375 1.0037271725 29.5965933345
544 1 7.9611975375 12.0785423754 7.4469629287
545 1 7.9611975375 12.0785423754 18.5217788626
546 1 7.9611975375 12.0785423754 29.5965933345
547 1 7.9611975375 23.1533578441 7.4469629287
548 1 7.9611975375 23.1533578441 18.5217788626
549 1 7.9611975375 23.1533578441 29.5965933345
550 1 19.0360134713 1.0037271725 7.4469629287
551 1 19.0360134713 1.0037271725 18.5217788626
552 1 19.0360134713 1.0037271725 29.5965933345
553 1 19.0360134713 12.0785423754 7.4469629287
554 1 19.0360134713 12.0785423754 18.5217788626
555 1 19.0360134713 12.0785423754 29.5965933345
556 1 19.0360134713 23.1533578441 7.4469629287
557 1 19.0360134713 23.1533578441 18.5217788626
558 1 19.0360134713 23.1533578441 29.5965933345
559 1 30.1108279433 1.0037271725 7.4469629287
560 1 30.1108279433 1.0037271725 18.5217788626
561 1 30.1108279433 1.0037271725 29.5965933345
562 1 30.1108279433 12.0785423754 7.4469629287
563 1 30.1108279433 12.0785423754 18.5217788626
564 1 30.1108279433 12.0785423754 29.5965933345
565 1 30.1108279433 23.1533578441 7.4469629287
566 1 30.1108279433 23.1533578441 18.5217788626
567 1 30.1108279433 23.1533578441 29.5965933345
568 1 6.7306395015 4.484106666 11.4915454672
569 1 6.7306395015 4.484106666 22.5663599059
570 1 6.7306395015 4.484106666 0.4167303639
571 1 6.7306395015 15.5589221015 11.4915454672
572 1 6.7306395015 15.5589221015 22.5663599059
573 1 6.7306395015 15.5589221015 0.4167303639
574 1 6.7306395015 26.6337365403 11.4915454672
575 1 6.7306395015 26.6337365403 22.5663599059
576 1 6.7306395015 26.6337365403 0.4167303639
577 1 17.8054554353 4.484106666 11.4915454672
578 1 17.8054554353 4.484106666 22.5663599059
579 1 17.8054554353 4.484106666 0.4167303639
580 1 17.8054554353 15.5589221015 11.4915454672
581 1 17.8054554353 15.5589221015 22.5663599059
582 1 17.8054554353 15.5589221015 0.4167303639
583 1 17.8054554353 26.6337365403 11.4915454672
584 1 17.8054554353 26.6337365403 22.5663599059
585 1 17.8054554353 26.6337365403 0.4167303639
586 1 28.8802698741 4.484106666 11.4915454672
587 1 28.8802698741 4.484106666 22.5663599059
588 1 28.8802698741 4.484106666 0.4167303639
589 1 28.8802698741 15.5589221015 11.4915454672
590 1 28.8802698741 15.5589221015 22.5663599059
591 1 28.8802698741 15.5589221015 0.4167303639
592 1 28.8802698741 26.6337365403 11.4915454672
593 1 28.8802698741 26.6337365403 22.5663599059
594 1 28.8802698741 26.6337365403 0.4167303639
595 1 6.7212259861 4.1139062407 5.4602906404
596 1 6.7212259861 4.1139062407 16.5351056108
597 1 6.7212259861 4.1139062407 27.6099210463
598 1 6.7212259861 15.1887209453 5.4602906404
599 1 6.7212259861 15.1887209453 16.5351056108
600 1 6.7212259861 15.1887209453 27.6099210463
601 1 6.7212259861 26.2635373775 5.4602906404
602 1 6.7212259861 26.2635373775 16.5351056108
603 1 6.7212259861 26.2635373775 27.6099210463
604 1 17.7960409233 4.1139062407 5.4602906404
605 1 17.7960409233 4.1139062407 16.5351056108
606 1 17.7960409233 4.1139062407 27.6099210463
607 1 17.7960409233 15.1887209453 5.4602906404
608 1 17.7960409233 15.1887209453 16.5351056108
609 1 17.7960409233 15.1887209453 27.6099210463
610 1 17.7960409233 26.2635373775 5.4602906404
611 1 17.7960409233 26.2635373775 16.5351056108
612 1 17.7960409233 26.2635373775 27.6099210463
613 1 28.8708553953 4.1139062407 5.4602906404
614 1 28.8708553953 4.1139062407 16.5351056108
615 1 28.8708553953 4.1139062407 27.6099210463
616 1 28.8708553953 15.1887209453 5.4602906404
617 1 28.8708553953 15.1887209453 16.5351056108
618 1 28.8708553953 15.1887209453 27.6099210463
619 1 28.8708553953 26.2635373775 5.4602906404
620 1 28.8708553953 26.2635373775 16.5351056108
621 1 28.8708553953 26.2635373775 27.6099210463
622 1 6.1273978993 3.4322866437 8.0030112329
623 1 6.1273978993 3.4322866437 19.0778262032
624 1 6.1273978993 3.4322866437 30.152640642
625 1 6.1273978993 14.5071018135 8.0030112329